# vtk DataFile Version 5.1
vtk output
ASCII
DATASET POLYDATA
POINTS 41006 float
86.2281 20.1111 34.3941 86.9273 20.1801 34.3475 87.7481 20.3071 34.388 
86.2792 20.7956 34.3727 87.0423 20.946 34.3032 87.9066 21.0828 34.3314 
88.8432 21.2872 34.4052 87.2094 21.738 34.3841 88.045 21.9029 34.3462 
88.9656 22.0413 34.3486 89.7253 22.1523 34.406 88.2465 22.7342 34.416 
89.0777 22.8839 34.3779 89.7976 22.9718 34.4119 86.1367 19.4149 35.1321 
86.8547 19.4077 35.1593 86.0625 20.0297 35.0351 87.0266 19.91 34.9443 
87.9366 20.1287 35.0863 88.8815 20.3198 35.2735 86.0896 20.9601 35.0494 
86.8971 21.1013 34.6767 88.1099 20.8983 34.7244 89.0144 20.9737 34.9573 
89.8536 21.1426 35.2052 86.2978 21.7439 35.2283 87.0038 21.9957 35.0049 
87.9371 22.1059 34.7183 89.0386 21.9548 34.6634 90.0267 21.9855 34.9601 
90.6727 22.1253 35.2693 87.2632 22.7587 35.2731 88.0179 22.9829 35.0285 
88.9437 23.0768 34.7418 90.0733 23.0025 34.8351 90.7437 23.0199 35.1982 
88.2422 23.8224 35.2777 89.0092 23.9903 35.0216 89.9967 23.9962 35.0082 
90.6924 23.8509 35.2428 89.1503 24.6993 35.2805 89.8599 24.6875 35.264 
86.1208 19.3811 35.6471 86.915 19.3924 35.6703 86.1195 20.0667 35.774 
87.0033 20.0209 35.9765 87.9968 20.0314 35.9932 88.9822 20.1426 36.0228 
89.8735 20.2998 36.129 86.1195 21.0061 35.921 86.7784 20.8474 36.2924 
89.1636 20.5505 35.7837 90.1343 20.8774 35.887 90.6909 21.1244 36.1388 
86.2588 21.8884 36.0102 86.6937 22.1771 35.9399 90.393 21.7649 35.7228 
90.9064 22.0252 36.0278 86.4082 22.7249 36.232 87.0258 22.9829 36.0165 
87.7029 23.2657 35.7198 91.0746 22.9926 35.9777 87.2601 23.8661 36.2555 
87.916 24.0579 35.9113 88.7281 24.2922 35.6402 90.2957 24.3022 35.6946 
90.9734 23.9901 36.0121 82.0133 25.2577 36.4286 82.9519 25.3188 36.403 
88.1148 24.8163 36.2023 89.0099 24.9548 36.0172 89.9804 24.9294 36.0231 
90.7374 24.7154 36.1626 82.1156 25.9893 36.3714 83.0028 26.0565 36.2826 
84.0099 26.0895 36.252 85.006 26.1021 36.2166 85.9609 26.1079 36.2614 
86.8022 26.0353 36.4121 82.2244 26.7277 36.386 83.0741 26.8976 36.3049 
84.0272 26.9992 36.1198 84.9984 26.9966 35.9728 85.9732 27.006 36.0878 
86.7072 26.9824 36.3416 83.2517 27.6933 36.3972 84.1232 27.9075 36.228 
85.0014 27.9976 36.0113 85.92 27.9595 36.1463 86.6471 27.8077 36.3629 
84.2865 28.6608 36.3357 85.0587 28.7288 36.2698 85.7739 28.7053 36.2947 
87.2353 20.3416 36.6918 88.0767 20.2708 36.8711 89.0124 20.1679 36.9633 
89.9113 20.2574 36.9556 86.3461 21.2297 36.6823 87.0539 21.0521 36.9516 
87.8742 20.7422 37.1702 90.2194 20.7196 37.0742 90.7762 21.0918 36.9859 
86.3564 22.0441 36.8594 86.7597 21.9439 37.1 91.067 21.9824 36.9966 
86.3451 22.9863 37.1049 86.7181 23.0412 36.9131 91.2921 22.9249 36.9403 
91.6401 23.1173 37.0932 80.3363 24.3628 37.2796 81.0359 24.3378 37.2399 
81.9623 24.3375 37.2425 82.9642 24.3614 37.3006 83.99 24.3631 37.343 
85.0515 24.3109 37.3516 86.1091 24.0713 37.2123 86.8837 24.0209 36.8382 
87.6571 24.2335 36.6066 91.2893 24.0644 36.8383 91.6991 23.9645 37.1344 
80.3446 24.9914 37.2777 81.0152 25.0088 37.041 82.0027 24.9537 36.9198 
83.0033 24.9739 36.9657 83.9995 25.0073 37.0099 85.0005 25.0069 37.0111 
85.9934 24.9779 36.9435 86.9772 24.9912 36.8246 88.0096 25.1593 36.8471 
88.9985 25.2051 36.966 90.0055 25.1915 36.9487 90.9671 24.9562 37.03 
91.6442 24.7632 37.2575 80.3706 25.6957 37.2932 81.0947 25.9275 37.1065 
81.8958 26.0439 36.7703 82.9943 25.8869 36.6041 83.9934 25.8018 36.629 
84.9924 25.7463 36.6517 86.0481 25.8232 36.6489 87.0732 26.0137 36.8531 
87.8588 25.8762 37.1637 90.0216 25.563 37.1915 90.7863 25.5874 37.2873 
81.3243 26.646 37.2142 82.0729 26.8959 37.0635 82.8723 27.1658 36.8342 
87.0471 27.0088 36.9668 87.6168 26.8694 37.3066 83.1434 27.7893 37.1001 
83.8361 28.151 36.9201 86.2955 28.1885 36.8099 86.838 27.913 37.0863 
84.209 28.7341 37.0693 85.0035 28.9773 37.0043 85.9208 28.8558 37.0407 
86.6438 28.6404 37.1923 88.2496 20.4008 37.6633 89.0691 20.3624 37.7256 
89.8436 20.3761 37.7143 87.3032 21.2941 37.7785 88.0421 21.0792 37.9441 
88.9763 20.8754 38.0869 90.023 20.9468 38.0342 90.699 21.2047 37.8832 
87.0716 22.0404 37.9588 87.7817 21.7431 38.2685 91.0336 21.9834 38.0044 
86.2491 23.169 37.9688 86.752 22.8534 38.0834 91.3615 22.7906 37.957 
91.7653 23.1047 38.0301 80.3133 24.3953 37.8975 81 24.3338 37.8455 
81.9914 24.3363 37.8319 83.0241 24.3506 37.9177 84.0401 24.2734 38.0228 
85.0237 24.1114 38.031 85.8763 23.8307 37.9501 91.9609 24.0029 38.01 
80.3252 24.9896 37.9022 80.9582 24.9522 38.0853 81.9875 24.8034 38.1537 
82.9624 24.7055 38.0945 83.9202 24.6012 37.9561 88.3315 25.3918 37.7609 
89.0578 25.373 37.8459 89.9083 25.3882 37.8479 91.1383 25.2556 37.779 
91.8643 24.9458 38.0682 80.3868 25.6922 37.8965 80.9826 26.0119 38.0061 
88.1637 26.1077 37.8865 88.9381 25.8334 38.1039 90.0412 25.759 38.0736 
90.9565 25.7685 38.107 91.7015 25.6816 38.236 81.2976 26.6722 37.9774 
81.9603 27.0526 37.9994 82.6643 27.3884 37.9546 87.3722 27.1378 37.7269 
87.9163 26.972 38.0568 82.3419 27.6225 38.0356 83.0457 27.922 38.0063 
83.7492 28.3009 37.989 87.1278 28.0859 37.9341 87.7187 27.7765 38.1997 
84.1467 28.7811 38.0008 84.9901 29.0679 38.0008 86.0027 29.0099 37.9988 
86.7829 28.7265 38.0942 51.1051 86.1981 38.376 52.0125 86.2322 38.2643 
52.9067 86.3025 38.2719 53.6375 86.3625 38.3086 51.1722 86.9136 38.3318 
52.0226 86.9836 38.14 52.9291 86.9749 38.199 53.6097 86.9188 38.3521 
51.2791 87.8479 38.4195 52.054 87.8524 38.3189 52.8403 87.7981 38.337 
51.0091 93.3126 38.3852 51.7604 93.3502 38.383 51.0518 93.9188 38.3834 
51.7473 93.9395 38.4106 88.2008 21.3421 38.672 89.057 21.2647 38.7686 
89.9058 21.2886 38.7678 90.637 21.3586 38.7216 87.3007 22.2267 38.7062 
88.035 22.0426 38.9515 88.9465 21.8193 39.1598 90.0489 21.782 39.1291 
90.9173 22.0936 38.9706 86.2286 23.3307 38.7382 87.0452 23.043 38.9563 
87.784 22.7809 39.2471 91.3038 22.6885 39.0241 91.8461 23.0977 39.0095 
84.1392 24.3294 38.8252 85.037 24.1177 38.9647 85.9617 23.8668 39.0485 
86.7927 23.6799 39.2037 92.1835 23.9514 38.9591 92.5936 24.1929 39.1723 
81.0617 25.142 38.6074 82.0468 25.1732 38.7353 83.0363 25.0863 38.8987 
83.9114 24.8722 39.1082 84.7555 24.631 39.2475 92.2111 25.0405 38.881 
92.6537 24.9691 39.2061 81.1913 25.9286 38.672 82.007 26.003 38.9846 
82.87 25.8465 39.2652 83.6802 25.6802 39.3652 88.364 26.2345 38.632 
89.1125 26.1667 38.8062 90.0028 26.0882 38.9525 90.9991 26.086 38.9694 
91.9317 25.908 39.0691 92.6319 25.781 39.306 81.3229 26.6535 38.6811 
82.1041 26.93 38.9291 82.6478 27.1377 39.1731 88.2677 27.1039 38.7293 
88.9473 26.9721 39.0788 89.8206 26.7831 39.3575 82.3625 27.6255 38.9263 
83.0253 27.972 39.0014 83.7083 28.3491 38.8961 87.3043 28.2952 38.8066 
88.0059 28.0063 38.9944 88.7979 27.7611 39.2791 83.4003 28.8047 39.2092 
84.0251 28.9703 39.0219 84.9768 29.2228 38.8975 86.0398 29.1655 38.9655 
86.9379 28.8697 39.0337 87.766 28.6306 39.2118 84.0924 30.0166 39.3057 
84.9588 29.915 39.2497 85.7449 29.7113 39.2447 83.2752 31.0375 39.3953 
84.0359 31.0155 39.2738 84.8317 30.9993 39.3402 83.2974 31.8999 39.4019 
84.0376 31.9392 39.3166 84.767 31.9099 39.3662 50.1216 78.3322 39.3701 
50.9169 78.3301 39.3619 50.09 78.9546 39.3687 50.89 78.8982 39.3665 
49.0719 85.0992 39.2917 49.9707 85.1968 39.195 50.9225 85.3269 39.203 
51.8066 85.4414 39.2298 49.1784 85.9011 39.2525 49.9977 86.0003 38.9907 
50.9933 85.915 38.8873 52.0121 85.9038 38.9696 52.9372 86.1407 39.0098 
53.617 86.3588 38.9698 49.2115 87.0501 39.344 50.0197 86.9947 39.0517 
50.8787 87.0631 38.737 53.2564 87.021 38.9618 53.6173 86.9743 38.9958 
49.1387 87.9873 39.3516 50.0302 87.9908 39.135 50.9709 88.0219 38.8993 
51.9913 88.1624 38.8068 52.9736 87.9763 39.0108 49.1529 88.6799 39.3926 
50.0635 88.7406 39.3053 51.0241 88.7588 39.2033 51.9629 88.7098 39.1499 
52.7355 88.6018 39.1587 48.1913 92.3075 39.3997 49.034 92.2931 39.3217 
49.9709 92.3235 39.2864 50.8466 92.392 39.3114 48.1903 93.0222 39.3473 
49.0262 93.0212 39.1188 49.9981 92.9899 38.9783 50.9993 93.0036 39.003 
51.7867 93.2203 39.1023 48.23 93.7051 39.3626 49.0815 93.8351 39.2183 
50.0079 93.9853 39.0191 50.995 94.0878 38.9133 51.8228 93.9301 39.0412 
50.1579 94.5835 39.2042 51.0176 94.612 39.0808 42.092 19.1976 40.3526 
43.0371 19.1264 40.2502 44.0093 19.097 40.1783 45.0022 19.0902 40.1499 
45.985 19.1109 40.1703 46.928 19.1952 40.2545 47.8038 19.3214 40.352 
41.2165 20.0353 40.4072 42.0533 20.0152 40.216 43.0045 20.0031 40.0332 
43.9948 19.9925 39.9209 44.9978 19.989 39.8742 46.004 19.9865 39.8835 
47.0039 19.9934 39.9701 47.9581 20.0637 40.1452 48.8282 20.2277 40.3166 
41.1658 20.8934 40.4501 42.0838 20.9241 40.2748 43.014 20.9885 40.0683 
43.9917 21.0068 39.91 44.9969 21.0058 39.8464 46.004 21.0082 39.85 
47.0051 21.0072 39.8906 48.0029 20.9997 39.9665 48.9611 21.0288 40.1408 
49.7524 21.1641 40.3411 42.1646 21.8853 40.4214 43.0714 21.9626 40.2204 
44.0027 21.9973 40.0216 44.9985 22.0077 39.9373 46.0019 22.0063 39.942 
47.0006 22.0013 39.987 47.9997 21.9976 40.0225 48.9981 21.9999 40.0521 
49.915 22.0519 40.2163 50.6389 22.1934 40.3645 88.2791 22.3271 39.6999 
89.081 22.2092 39.8578 89.9896 22.149 39.9305 90.8449 22.2991 39.8845 
43.1019 22.9722 40.3229 44.0174 22.9706 40.173 45.0021 22.9763 40.1142 
46 22.9798 40.1051 46.9971 22.9839 40.119 47.9991 22.9867 40.1359 
49.0054 22.9876 40.1131 49.9837 22.9975 40.1452 50.7229 23.0507 40.3244 
87.2707 23.2999 39.7107 88.051 23.0545 39.9487 88.8618 22.7721 40.2016 
90.0189 22.6062 40.2781 91.1227 22.7239 40.0815 91.8818 23.1252 39.9948 
43.1062 23.7297 40.409 44.026 23.77 40.3636 45.0081 23.7905 40.3464 
46.018 23.8204 40.3354 47.0266 23.8832 40.3098 48.0157 23.945 40.2699 
49.0079 23.9692 40.2332 50.011 23.9869 40.1893 50.8015 24.0176 40.3117 
85.1614 24.334 39.7673 86.048 24.1906 39.9036 86.9771 23.9488 40.0274 
87.7769 23.7147 40.2127 92.3039 23.8114 39.9335 92.7609 24.1448 40.0705 
48.0961 24.8327 40.4166 49.0308 24.9105 40.364 50.0482 24.9721 40.2646 
50.8477 24.9962 40.3212 84.1599 25.1808 39.8302 84.9421 24.9084 40.0738 
85.8777 24.6682 40.2391 92.9872 25.0019 40.0064 50.1009 25.9524 40.3447 
[...]
POINT_DATA 41006
FIELD FieldData 1
gradient 3 41006 float
195 95 337 -92 228 440 -137 167 211 
209 -153 279 79 -101 567 -142 126 504 
-101 185 261 151 -189 277 64 -138 492 
-50 60 506 -184 102 272 128 -138 216 
89 -133 433 -172 -24 350 117 355 113 
-124 348 136 415 197 233 -143 483 299 
-260 528 354 -133 359 307 548 -244 302 
128 -126 402 -187 173 469 -194 354 574 
-304 296 426 300 -258 230 351 -401 455 
108 -182 484 -58 68 506 -367 199 549 
-350 134 288 265 -243 275 335 -321 533 
121 -165 555 -259 -9 583 -477 37 369 
300 -220 344 259 -273 607 -236 -268 584 
-361 -175 285 164 -328 306 -156 -348 294 
77 243 -225 -57 263 -221 267 149 -505 
72 448 -504 -73 719 -157 -92 738 118 
-206 488 210 531 27 -351 257 177 -339 
-87 239 115 -366 334 308 -472 190 212 
531 -229 21 403 -233 79 -224 134 158 
-703 189 209 227 -153 129 515 -341 329 
246 -220 232 -728 72 218 338 -174 332 
425 -293 449 161 -173 213 -184 -188 190 
-621 -231 281 9 175 291 -32 212 268 
210 -336 370 150 -682 260 -190 -684 224 
-310 -336 192 141 -13 453 6 120 600 
24 216 608 17 287 609 -84 232 562 
-168 30 350 150 -182 258 131 -181 539 
171 -5 753 48 102 828 -222 50 728 
-300 -18 350 128 -156 202 289 -217 535 
95 -159 763 -328 -166 600 -211 -115 217 
163 -193 191 84 -388 386 -211 -275 275 
155 225 -203 147 519 -247 53 719 -157 
-204 592 -102 220 146 -202 412 398 -370 
204 418 -276 -266 340 -90 -617 253 -39 
436 54 -172 514 120 -214 -765 201 39 
454 -18 138 506 -74 156 -568 146 116 
-448 146 116 178 192 148 44 414 294 
-46 412 296 -33 333 277 -8 290 274 
48 290 328 277 181 539 378 -68 526 
163 -111 187 -458 -102 256 -517 -61 231 
361 -9 291 219 127 589 -19 331 573 
-53 417 547 -28 420 570 27 379 613 
81 271 693 88 34 678 -24 -400 384 
5 -693 115 -19 -661 177 -361 -481 329 
-275 -183 199 201 -165 159 385 -295 433 
221 -93 487 6 120 420 7 211 395 
8 268 368 -59 217 431 -278 -52 558 
-325 -285 377 16 -324 142 -116 -224 156 
218 -238 144 341 -487 297 255 -331 331 
-555 -103 391 -270 -92 216 311 -457 217 
433 -399 211 -359 -229 231 -518 -278 276 
353 -449 117 116 -760 144 -329 -599 169 
-213 -215 115 109 175 -147 66 346 -262 
-121 291 -221 267 259 -195 274 516 -364 
104 548 -382 -230 532 -342 -425 289 -165 
536 302 -308 226 266 -278 -655 323 -85 
423 287 -53 455 269 -153 -404 234 48 
-585 261 75 214 270 -70 0 484 -224 
-12 472 -236 34 494 -116 88 600 50 
144 676 188 342 468 138 -757 57 193 
469 -15 -141 181 207 -369 28 440 -344 
62 486 -156 80 400 44 -165 -195 119 
-66 -426 176 94 -398 156 -184 -340 294 
-583 -233 293 284 -226 -76 484 -330 -168 
-456 -300 316 -174 -468 292 102 -596 182 
-107 -569 263 -239 -255 189 316 -348 -24 
426 -564 6 229 -265 31 -308 -114 226 
-547 -183 371 250 -276 26 362 -618 50 
341 -409 15 -512 -344 264 -331 -263 235 
366 -546 2 118 -810 -10 -203 -749 93 
-339 -427 147 104 196 372 21 391 445 
-116 376 338 -148 148 126 233 -117 449 
118 -86 732 -220 -78 618 -245 -51 221 
167 -91 251 82 -224 484 -182 -230 384 
7 241 297 -117 171 187 60 -94 444 
-192 -46 312 142 242 -232 89 413 -361 
-127 389 -313 -163 161 -125 260 196 -254 
329 401 -457 138 466 -412 -122 544 -322 
-441 499 -157 179 259 -205 409 389 -395 
277 281 -317 -315 323 -25 -586 372 36 
180 426 -226 213 677 -203 188 654 -238 
228 352 -224 -669 177 149 -316 150 134 
63 145 -401 86 318 -486 179 425 -499 
298 430 -364 165 249 -167 -532 -102 300 
-415 -37 247 249 -93 -427 289 123 -629 
221 261 -451 141 141 -161 -180 -116 182 
-241 -357 415 -20 -624 336 7 -693 247 
-335 -451 339 -237 -141 197 164 -176 -162 
458 -308 -312 358 -140 -176 -353 -137 357 
-366 -194 548 -153 -185 305 241 -249 -49 
471 -521 27 264 -316 94 -269 -261 171 
-395 -423 379 -231 -273 319 289 -141 151 
363 -429 317 61 -585 269 -167 -695 145 
-302 -634 164 -190 -300 172 156 28 516 
-79 -163 479 -197 -223 189 220 30 316 
81 35 617 -231 -1 467 205 -69 277 
65 -105 547 -238 -92 374 90 246 274 
-68 270 296 113 -57 463 -133 -123 443 
121 167 491 -66 444 440 -100 422 262 
-106 242 126 323 -179 457 164 -24 666 
28 356 472 -86 684 216 -287 643 45 
-254 238 -20 249 59 405 263 -71 689 
250 -130 542 -477 -39 71 -461 -31 -5 
185 -17 469 164 -50 732 194 -146 672 
18 -338 402 -440 -394 180 97 -203 249 
83 -339 399 47 -471 397 -65 -509 263 
-190 -286 114 112 180 234 38 328 360 
-33 367 325 -99 253 201 240 28 438 
158 128 716 57 299 645 -99 503 419 
-365 377 175 163 -209 257 180 -364 482 
199 -371 481 18 -316 312 -482 -190 112 
116 -306 150 20 -442 92 108 232 414 
84 286 566 32 334 614 9 369 613 
-51 377 579 -131 355 463 -141 231 253 
184 30 346 165 47 669 111 77 827 
54 78 826 14 70 798 -27 91 785 
-99 169 767 -185 281 641 -197 261 363 
112 -72 304 171 -155 561 159 -131 775 
76 -62 824 16 -30 792 -21 -43 789 
-38 -54 818 -73 7 831 -193 143 699 
-249 165 343 132 -92 338 206 -108 636 
104 -102 822 20 -102 834 -27 -91 835 
-39 -87 843 -13 -89 841 -30 -2 824 
-241 147 613 -211 113 213 186 218 -200 
191 493 -335 -44 630 -294 -235 453 -175 
165 -45 523 73 -123 725 14 -160 770 
0 -150 782 -19 -107 791 -5 -77 789 
38 -88 800 -85 -13 759 -328 60 384 
204 226 -218 388 414 -390 231 381 -337 
-15 313 -221 -232 522 -154 -475 503 -21 
75 -191 289 28 -248 392 10 -260 430 
25 -249 465 46 -202 536 36 -126 618 
23 -89 675 43 -51 739 -305 27 479 
172 356 -248 147 583 -295 263 589 -315 
258 330 -246 -448 278 98 -502 304 148 
81 -141 351 40 -116 472 114 -66 626 
-238 -6 502 322 364 -342 299 473 -381 
132 358 -258 -641 95 321 144 -68 492 
-183 -43 453 159 121 -177 297 329 -409 
370 358 -394 160 158 -166 -103 -283 247 
6 -382 252 -153 -343 341 -461 -203 441 
108 -80 344 -144 -102 308 280 -4 -192 
541 153 -323 166 164 -164 -229 -125 299 
-278 -250 554 -102 -434 442 -86 -514 316 
-190 -316 262 626 -142 146 -202 -328 220 
-263 -429 441 -253 -313 467 -146 -148 246 
217 159 369 422 26 568 204 -144 376 
-211 -407 201 -265 -679 175 -190 -618 204 
-124 -366 242 245 83 575 272 94 694 
139 49 483 -134 -98 448 -428 -216 452 
-251 -147 199 270 10 622 284 36 640 
81 35 403 -280 -22 504 -459 -81 463 
281 -151 505 320 -130 624 64 -110 468 
-410 -200 468 -364 -176 306 157 -193 217 
282 -376 428 5 -493 453 -345 -397 309 
131 263 253 167 483 367 87 655 283 
-250 564 76 181 125 289 224 152 614 
212 70 700 102 -42 518 -419 -105 241 
156 -108 306 125 -259 531 80 -408 556 
-14 -544 434 -269 -447 247 111 131 363 
26 278 482 -47 373 423 -105 307 277 
135 -109 385 143 -115 627 108 62 712 
-23 365 573 -180 530 392 -192 380 254 
102 -250 280 206 -370 450 299 -253 535 
70 154 430 -198 548 298 -275 637 169 
-227 367 9 345 -87 537 342 -176 454 
-333 537 -103 -351 431 -243 182 168 456 
229 199 689 281 111 561 -552 4 -438 
109 137 199 89 281 383 29 361 453 
62 310 520 147 175 707 168 48 776 
188 -18 548 -333 -225 -213 -462 -254 -364 
187 -45 291 183 -17 629 110 78 766 
10 158 758 -23 71 799 -18 -158 766 
46 -420 550 26 -638 292 -79 -763 111 
-265 -629 -81 -194 -264 -136 132 -284 342 
164 -376 522 59 -353 631 -85 -279 671 
-157 -251 549 -90 -264 318 146 -96 412 
38 40 586 -107 185 489 -142 196 240 
222 32 364 202 136 666 83 345 607 
-59 607 355 -170 690 156 -251 421 -9 
207 -95 299 304 -112 608 290 -12 528 
-413 315 -247 -329 231 -281 178 -338 264 
241 -613 265 140 -722 78 -1 -629 -161 
-233 -431 -443 -351 -189 -363 39 -337 -119 
-57 -319 -215 101 333 277 63 487 315 
40 578 280 9 619 261 3 623 267 
-46 590 274 -126 440 262 -128 194 156 
118 166 208 220 270 480 216 314 608 
128 340 496 72 346 352 21 349 281 
4 358 266 -55 383 291 -176 474 358 
-276 522 388 -240 328 256 128 180 282 
162 198 556 202 120 758 206 48 652 
152 36 338 -183 263 273 -351 439 399 
-351 303 255 142 132 296 156 132 586 
112 92 788 116 34 832 115 -71 713 
158 -144 446 -181 149 247 -493 313 371 
-285 191 185 105 157 203 118 302 402 
24 390 500 -151 329 395 -134 134 154 
162 54 482 104 22 738 67 -35 841 
60 -78 846 52 -92 818 140 -100 672 
187 -89 363 -297 197 299 -583 217 271 
241 87 433 182 142 740 37 131 815 
-205 151 733 -290 136 396 146 -38 498 
54 -72 696 38 -94 770 34 -106 804 
86 -84 830 156 -26 752 164 -44 496 
-658 138 282 218 238 -204 310 496 -348 
60 636 -310 -133 743 -203 -294 602 -56 
313 49 533 154 38 806 -38 -54 810 
-194 -138 742 -269 -91 441 96 -120 340 
23 -167 459 33 -181 515 37 -171 585 
111 -165 685 123 -231 705 101 -309 613 
39 -329 547 19 -321 529 40 -286 518 
57 -213 473 36 -126 402 -522 84 322 
-379 89 205 117 239 -165 202 482 -236 
327 557 -297 232 330 -242 -268 354 0 
-481 481 151 -202 196 120 292 -128 466 
95 -197 735 -125 -251 693 -183 -243 501 
-133 -143 235 52 -228 336 34 -310 388 
44 -378 406 55 -399 459 70 -340 558 
74 -290 654 152 -234 700 101 -161 649 
40 -116 548 114 -66 394 -377 17 379 
-494 42 248 279 391 -303 256 582 -322 
193 469 -225 138 196 -122 -428 190 250 
-470 260 322 144 -170 204 33 -311 365 
-86 -280 312 43 -57 523 131 -165 633 
177 -183 741 92 -100 726 144 -68 528 
-300 -44 450 -512 -10 274 361 367 -303 
352 410 -348 151 187 -169 -264 -86 342 
-476 2 504 -223 45 219 58 -96 436 
227 -101 657 148 -78 798 112 -86 670 
-320 -162 534 -406 -110 260 476 378 -172 
324 450 -238 -141 -257 369 -60 -404 482 
-149 -351 603 -292 -140 608 -242 -18 254 
86 34 376 177 17 629 156 -48 812 
17 -127 769 -386 -212 510 -194 -118 156 
297 307 129 563 301 27 -88 -224 188 
-183 -287 407 -192 -238 652 -123 -205 687 
-29 -201 629 -147 -147 495 127 -73 337 
113 -79 577 66 -168 694 -121 -317 579 
-250 -234 268 95 197 195 103 369 343 
156 474 438 342 394 400 265 147 169 
-228 -400 270 -159 -633 309 -132 -664 294 
-97 -559 355 -77 -407 401 -76 -278 338 
52 -236 262 -11 -285 295 -99 -191 183 
184 104 214 208 212 554 138 188 742 
152 114 704 223 71 417 -275 -79 283 
-398 -130 542 -215 -123 383 177 -119 199 
275 -167 561 163 -51 763 108 4 676 
222 2 350 -430 -140 350 -382 -228 456 
-131 -135 183 168 -236 208 188 -434 420 
180 -392 532 312 -228 382 -255 -191 95 
-525 -373 251 -212 -210 184 132 -290 198 
249 -565 221 259 -651 79 -27 -619 -1 
-392 -596 64 -274 -300 80 113 193 177 
157 433 299 179 665 267 77 789 111 
-196 688 -178 -275 375 -279 152 136 224 
257 247 525 266 260 578 216 174 330 
-233 129 -209 -543 137 -391 233 23 383 
244 -20 710 175 -137 667 88 -270 424 
6 -360 288 -195 -435 155 -492 -354 -62 
180 72 478 87 -95 687 -2 -312 632 
-44 -488 458 -35 -571 333 -140 -482 234 
-185 -201 85 144 262 346 144 358 538 
80 326 644 -66 240 668 -151 155 567 
-173 53 329 235 29 611 180 60 774 
108 156 632 -11 325 473 -123 493 419 
-221 575 373 -222 446 280 -141 169 127 
245 -51 597 191 -61 783 138 -116 628 
127 -117 373 -94 228 208 -220 486 278 
-319 587 249 -282 296 110 207 -131 441 
154 -196 698 71 -245 737 110 -328 640 
177 -345 449 155 -171 191 -181 261 125 
-487 485 59 -284 292 -50 132 -136 470 
108 -72 688 101 39 793 195 65 695 
246 0 358 -317 127 -133 -522 252 -298 
-173 133 -169 73 279 303 75 335 403 
95 291 519 125 207 693 150 162 746 
187 177 539 150 138 232 -501 -37 -491 
-285 -9 -285 215 45 329 191 139 645 
140 266 668 99 379 525 44 386 480 
79 279 445 131 137 259 -314 -100 -298 
-475 -167 -473 -202 -86 -204 190 -110 264 
251 -169 601 264 -112 638 174 -26 368 
-88 -254 184 -198 -508 84 -314 -596 -194 
-271 -325 -243 138 -256 252 226 -464 388 
254 -508 422 170 -378 370 54 -250 262 
-156 -240 422 -321 -423 423 -235 -439 155 
260 -186 354 285 -195 633 163 -99 581 
-138 174 482 -468 228 374 317 9 645 
250 32 626 -273 415 99 -420 504 -166 
-192 224 -192 263 -237 465 290 -274 512 
241 -193 223 -451 -47 -475 -352 42 -424 
152 -420 214 184 -696 128 93 -829 -15 
-76 -752 -192 -218 -514 -386 -208 -226 -296 
129 183 141 178 480 218 95 725 151 
28 820 72 9 843 41 6 850 26 
3 851 17 -21 843 35 -91 769 107 
-201 513 175 -152 172 106 165 361 315 
261 477 427 267 401 345 106 256 154 
-230 464 204 -388 540 234 -238 238 112 
129 279 313 214 376 502 233 347 561 
189 227 419 -258 286 150 -530 426 208 
-196 176 92 134 130 150 -13 251 271 
-31 227 217 119 147 189 172 236 458 
198 236 674 200 194 656 157 133 425 
-389 259 161 -560 286 176 205 -59 221 
121 25 543 57 271 623 115 471 491 
115 597 299 -7 675 167 -191 679 201 
-323 425 213 123 135 207 177 171 495 
185 153 735 140 108 752 165 57 535 
-682 226 194 -243 147 133 264 -116 452 
240 -36 750 247 79 567 -460 270 396 
-321 235 301 166 106 448 143 79 717 
158 36 816 78 -8 740 146 -38 522 
-485 145 199 -512 152 208 189 253 -193 
139 539 -273 -36 662 -204 -150 518 -110 
193 -117 223 409 -99 555 316 24 434 
-300 -58 518 -339 119 585 -187 149 261 
129 11 565 103 -39 759 110 -84 828 
63 -103 795 103 -131 669 23 -171 557 
35 -183 503 37 -171 435 87 -145 311 
-267 87 169 -681 129 239 239 471 -229 
298 566 -306 163 413 -269 -18 332 -180 
-146 498 -106 -313 661 33 -330 394 104 
447 -173 341 389 -185 419 -96 -190 238 
-180 -250 462 -174 -210 690 -157 -79 723 
-213 47 457 74 -134 442 69 -173 575 
75 -197 677 67 -209 741 55 -225 753 
9 -247 739 48 -236 724 43 -229 693 
50 -286 622 14 -356 548 34 -394 500 
74 -360 456 68 -258 374 55 -183 257 
-709 77 271 259 411 -251 269 617 -269 
221 473 -213 -503 393 233 -320 294 208 
215 -165 153 350 -424 370 46 -520 428 
-124 -504 456 -153 -445 501 -80 -364 494 
-33 -277 459 -108 -174 334 43 -217 315 
44 -260 394 25 -297 451 20 -294 490 
47 -295 527 33 -313 565 -6 -322 578 
-16 -338 552 31 -333 557 237 -207 671 
157 -57 649 42 -56 496 100 -134 354 
-663 27 317 183 201 -99 345 501 -239 
296 482 -280 152 196 -152 -317 79 261 
-521 163 407 128 -178 142 22 -328 256 
-53 -297 247 391 -113 499 194 -72 694 
-5 -83 635 57 -95 583 196 -78 330 
-608 -120 358 296 338 -92 355 605 -175 
252 384 -148 -210 -60 314 -528 -44 464 
308 -168 292 270 -216 648 56 -68 742 
86 34 644 172 22 386 -387 -205 279 
-460 -204 366 312 446 -62 410 534 -98 
180 206 -84 -90 -146 258 -15 -173 363 
-158 -154 500 -522 -112 450 240 -286 358 
223 -297 613 179 -139 617 118 -88 434 
-207 -407 235 -388 -440 322 -204 -186 250 
146 448 56 113 673 -31 174 754 -98 
304 508 -80 -95 -247 263 -96 -404 378 
-70 -518 380 -43 -525 395 -59 -435 509 
2 -360 604 -130 -334 612 -381 -207 361 
168 -288 238 159 -521 357 65 -645 331 
-71 -689 251 -201 -531 201 -130 -234 152 
420 296 230 249 431 167 -225 -127 571 
-204 -208 676 -145 -277 497 -28 -330 348 
-5 -351 339 15 -359 369 -75 -317 323 
-136 -144 140 383 -393 163 369 -445 101 
-351 -283 337 -261 -391 511 -172 -314 390 
-97 -165 177 274 -426 -14 246 -728 -62 
211 -591 -85 -373 -469 141 -319 -511 253 
-130 -240 198 196 -414 -74 203 -717 -79 
142 -770 -100 -8 -726 -118 -257 -727 -29 
-296 -448 68 114 188 240 -21 209 333 
103 -59 369 -73 -143 399 70 300 324 
157 575 269 136 770 170 53 833 55 
-185 723 -177 -308 386 -262 112 134 282 
62 168 456 136 234 582 238 316 580 
245 297 353 -203 111 -187 -506 232 -430 
-286 146 -264 111 -17 399 99 -15 609 
202 22 760 262 30 608 -502 -2 -258 
-398 -24 -254 145 51 413 159 143 635 
199 163 715 192 82 530 -44 -214 288 
-97 -357 367 -136 -530 338 -406 -508 70 
-209 -201 -71 202 212 342 239 327 563 
203 373 543 131 329 397 61 211 259 
-119 103 399 -228 40 614 -313 -95 529 
-210 -98 178 258 60 580 269 31 687 
214 26 386 -164 328 310 -332 508 350 
-361 341 173 255 -127 529 288 -82 684 
228 -44 404 -456 452 88 -383 315 -11 
262 -54 380 283 -97 681 223 -145 553 
107 -149 265 -611 193 -233 218 76 402 
186 -22 704 180 -114 736 128 -132 544 
102 -64 316 -529 13 -447 -297 31 -269 
239 229 357 215 371 567 121 401 579 
95 343 547 86 234 442 112 134 246 
-242 -56 -244 -473 -81 -519 -287 -33 -293 
360 14 538 275 53 629 147 109 329 
-328 -66 -330 -462 -116 -508 -201 -67 -207 
295 -191 401 312 -258 554 237 -187 325 
-461 -337 -319 -322 -280 -312 159 -357 313 
265 -553 359 233 -489 357 151 -253 227 
-523 -317 -89 -365 -373 -153 133 87 303 
-16 228 420 -78 216 326 112 22 336 
280 -148 568 306 -182 554 180 -94 216 
-731 59 -103 169 -115 275 153 -51 587 
-11 197 673 -54 292 600 135 151 695 
301 35 677 245 7 303 -546 98 -314 
-368 152 -270 169 -231 303 187 -265 577 
-3 -111 715 -38 -92 716 165 -285 603 
253 -385 333 104 -296 90 -139 -213 -229 
-368 -220 -518 -379 -107 -373 121 -203 175 
48 -372 306 -59 -361 309 26 -328 260 
133 -487 185 90 -710 76 39 -803 -45 
-80 -712 -220 -183 -461 -323 -159 -169 -177 
71 93 343 -147 187 267 192 -142 294 
26 58 494 -138 264 380 203 -215 323 
82 -24 562 -67 249 591 -158 194 410 
215 -261 285 55 -279 525 -200 -144 432 
197 447 123 133 743 69 24 846 20 
3 851 3 0 852 0 0 852 0 
0 852 0 0 852 0 -20 848 20 
-144 738 80 -268 366 90 210 470 220 
237 667 227 233 535 159 -402 516 132 
-394 354 84 132 220 180 205 473 311 
219 597 335 244 464 266 138 202 142 
-548 412 90 -330 282 54 315 327 75 
-22 620 126 -79 567 123 -34 454 74 
193 325 347 257 427 491 246 340 434 
148 186 242 -669 305 95 504 -138 122 
241 21 219 -27 389 175 -28 560 80 
4 596 18 -52 644 -6 -109 759 -3 
-313 661 77 -224 276 96 136 164 192 
228 306 472 252 296 626 199 195 489 
-523 249 119 -470 242 112 254 -172 62 
557 -265 157 -270 250 110 -439 463 277 
-225 299 233 132 152 214 235 221 523 
230 180 706 179 119 559 -704 216 196 
21 305 -203 -47 279 -137 426 -292 62 
500 -288 54 -290 180 282 -359 359 483 
-210 306 360 128 138 226 180 168 524 
198 110 754 173 57 699 129 11 455 
-612 166 266 -347 147 229 115 189 -143 
228 444 -260 218 608 -312 53 641 -275 
-39 707 -171 -174 778 -64 -284 552 50 
672 -258 -6 -242 80 530 -250 210 668 
-227 227 439 167 51 415 139 19 701 
143 -19 821 119 -75 735 76 -136 576 
64 -168 440 59 -171 317 -426 96 290 
-508 140 354 244 408 -262 251 601 -313 
229 483 -263 122 224 -164 -302 408 94 
-373 531 267 -205 261 219 370 -260 2 
440 -470 30 -33 -355 121 -61 -397 259 
-39 -397 399 -23 -337 485 -114 -246 614 
-167 -165 727 -220 -92 566 109 -117 349 
106 -176 554 93 -221 683 77 -257 719 
47 -267 715 46 -282 680 56 -300 622 
47 -319 559 36 -330 516 28 -302 496 
39 -273 459 26 -264 406 -7 -267 385 
-20 -284 406 29 -275 395 165 -145 207 
-304 40 276 -512 114 464 -196 78 196 
221 347 -137 276 604 -240 261 505 -279 
144 222 -178 -375 173 315 -473 173 403 
245 -355 35 44 -644 60 -28 -660 116 
-33 -585 235 8 -510 350 16 -484 400 
-36 -458 418 -79 -373 399 -100 -238 274 
36 -246 294 46 -298 364 42 -324 432 
35 -325 485 54 -320 534 73 -277 617 
77 -199 733 73 -141 795 41 -123 785 
5 -151 755 -55 -217 725 -73 -301 679 
54 -338 620 416 -192 362 -290 -54 314 
-385 13 603 -305 67 329 328 560 -140 
276 596 -170 167 285 -135 -317 -41 271 
-564 -74 398 91 65 377 93 79 561 
100 44 742 81 17 841 -12 -46 846 
-88 -164 772 -130 -266 608 -106 -290 418 
26 -314 318 536 -368 290 264 -216 156 
-300 -112 464 -223 -27 745 -336 50 442 
243 281 -145 398 546 -190 279 365 -117 
-431 -101 299 -508 -126 344 103 195 407 
106 174 606 38 120 740 34 34 810 
20 -66 824 -94 -146 746 -176 -198 524 
-118 -172 246 277 -263 117 416 -522 210 
241 -345 149 -167 -259 375 -190 -176 682 
-116 -44 816 -301 21 523 52 280 -224 
49 373 -295 149 503 -317 385 521 -279 
248 248 -138 -556 -306 300 -293 -191 195 
88 174 312 124 166 522 80 126 710 
72 90 810 -17 55 843 -67 -15 811 
-102 -138 672 -134 -220 438 -118 -150 194 
198 -236 98 256 -616 148 142 -790 100 
39 -753 83 -74 -742 134 -82 -650 300 
13 -349 611 -40 -102 820 -46 -14 834 
-276 16 560 323 273 -323 164 492 -442 
78 540 -394 145 435 -325 166 194 -158 
-169 -263 415 -86 -420 482 -14 -532 424 
-9 -593 361 -160 -632 298 -349 -383 183 
119 179 455 68 156 642 90 110 764 
43 79 833 13 19 847 -86 -74 808 
-155 -161 645 -157 -181 363 242 -22 612 
37 37 841 -32 40 830 -296 4 554 
289 -371 -257 290 -498 -368 219 -279 -285 
-202 -410 172 -235 -587 289 -172 -550 364 
-100 -410 330 -24 -322 260 -19 -281 215 
154 108 454 108 82 706 12 38 824 
60 -2 846 -6 -50 838 -71 -123 785 
-145 -173 631 -171 -161 351 216 48 216 
256 72 638 72 62 848 -98 28 820 
-329 -35 511 180 -272 -152 226 -594 -218 
226 -690 -200 200 -460 -164 -252 -476 14 
-254 -710 88 -190 -558 148 -136 -270 138 
127 165 461 119 145 683 71 99 813 
-16 78 850 -10 20 848 -79 -75 785 
-144 -148 596 -139 -165 329 295 39 295 
209 47 715 74 12 850 -177 -31 793 
-326 -44 446 138 -222 -118 205 -535 -169 
111 -757 -177 26 -822 -156 -126 -802 -80 
-250 -528 0 189 81 391 96 50 676 
74 -6 808 52 -24 846 -40 -46 840 
-77 -79 799 -149 -121 629 -163 -137 329 
345 27 349 172 32 762 48 4 850 